
Host: thetinkerfactory

Timers On : Sat Sep  6 18:07:02 2025
Timers Off: Sat Sep  6 18:07:02 2025

Wall Time:        0.19 seconds

                                                       Time (seconds)
Module                                       User      System        Wall        Calls

--------------------------------------------------------------------------------------

**************************************************************************************
